<?xml version="1.0" encoding="UTF-8"?>

<!-- generated on 2023-03-07 13:51:22 by Eclipse SUMO sumo Version 1.13.0
<configuration xmlns:xsi="http://www.w3.org/2001/XMLSchema-instance" xsi:noNamespaceSchemaLocation="http://sumo.dlr.de/xsd/sumoConfiguration.xsd">

    <input>
        <net-file value="C:/Users/Tribik/Documents/Mohamed/Études/MP/TIPE/Code/Ring/SumoFiles/ring.net.xml"/>
        <additional-files value="C:/Users/Tribik/Documents/Mohamed/Études/MP/TIPE/Code/Ring/SumoFiles/ring.rerou.xml"/>
    </input>

    <output>
        <emission-output value="C:/Users/Tribik/Documents/Mohamed/Études/MP/TIPE/Code/Ring/SumoFiles/emissions.xml"/>
    </output>

    <time>
        <step-length value="0.1"/>
    </time>

    <traci_server>
        <remote-port value="53976"/>
    </traci_server>

    <gui_only>
        <tracker-interval value="0.1"/>
    </gui_only>

</configuration>
-->

<emission-export xmlns:xsi="http://www.w3.org/2001/XMLSchema-instance" xsi:noNamespaceSchemaLocation="http://sumo.dlr.de/xsd/emission_file.xsd">
    <timestep time="0.00"/>
    <timestep time="0.10"/>
    <timestep time="0.20"/>
    <timestep time="0.30"/>
    <timestep time="0.40"/>
    <timestep time="0.50"/>
    <timestep time="0.60"/>
    <timestep time="0.70"/>
    <timestep time="0.80"/>
    <timestep time="0.90"/>
    <timestep time="1.00"/>
    <timestep time="1.10"/>
    <timestep time="1.20"/>
    <timestep time="1.30"/>
    <timestep time="1.40"/>
    <timestep time="1.50"/>
    <timestep time="1.60"/>
    <timestep time="1.70"/>
    <timestep time="1.80"/>
    <timestep time="1.90"/>
    <timestep time="2.00"/>
    <timestep time="2.10"/>
    <timestep time="2.20"/>
    <timestep time="2.30"/>
    <timestep time="2.40"/>
    <timestep time="2.50"/>
    <timestep time="2.60"/>
    <timestep time="2.70"/>
    <timestep time="2.80"/>
    <timestep time="2.90"/>
    <timestep time="3.00"/>
    <timestep time="3.10"/>
    <timestep time="3.20"/>
    <timestep time="3.30"/>
    <timestep time="3.40"/>
    <timestep time="3.50"/>
    <timestep time="3.60"/>
    <timestep time="3.70"/>
    <timestep time="3.80"/>
    <timestep time="3.90"/>
    <timestep time="4.00"/>
    <timestep time="4.10"/>
    <timestep time="4.20"/>
    <timestep time="4.30"/>
    <timestep time="4.40"/>
    <timestep time="4.50"/>
    <timestep time="4.60"/>
    <timestep time="4.70"/>
    <timestep time="4.80"/>
    <timestep time="4.90"/>
    <timestep time="5.00"/>
    <timestep time="5.10"/>
    <timestep time="5.20"/>
    <timestep time="5.30"/>
    <timestep time="5.40"/>
    <timestep time="5.50"/>
    <timestep time="5.60"/>
    <timestep time="5.70"/>
    <timestep time="5.80"/>
    <timestep time="5.90"/>
    <timestep time="6.00"/>
    <timestep time="6.10"/>
    <timestep time="6.20"/>
    <timestep time="6.30"/>
    <timestep time="6.40"/>
    <timestep time="6.50"/>
    <timestep time="6.60"/>
    <timestep time="6.70"/>
    <timestep time="6.80"/>
    <timestep time="6.90"/>
    <timestep time="7.00"/>
    <timestep time="7.10"/>
    <timestep time="7.20"/>
    <timestep time="7.30"/>
    <timestep time="7.40"/>
    <timestep time="7.50"/>
    <timestep time="7.60"/>
    <timestep time="7.70"/>
    <timestep time="7.80"/>
    <timestep time="7.90"/>
    <timestep time="8.00"/>
    <timestep time="8.10"/>
    <timestep time="8.20"/>
    <timestep time="8.30"/>
    <timestep time="8.40"/>
    <timestep time="8.50"/>
    <timestep time="8.60"/>
    <timestep time="8.70"/>
    <timestep time="8.80"/>
    <timestep time="8.90"/>
    <timestep time="9.00"/>
    <timestep time="9.10"/>
    <timestep time="9.20"/>
    <timestep time="9.30"/>
    <timestep time="9.40"/>
    <timestep time="9.50"/>
    <timestep time="9.60"/>
    <timestep time="9.70"/>
    <timestep time="9.80"/>
    <timestep time="9.90"/>
    <timestep time="10.00"/>
    <timestep time="10.10"/>
    <timestep time="10.20"/>
    <timestep time="10.30"/>
    <timestep time="10.40"/>
    <timestep time="10.50"/>
    <timestep time="10.60"/>
    <timestep time="10.70"/>
    <timestep time="10.80"/>
    <timestep time="10.90"/>
    <timestep time="11.00"/>
    <timestep time="11.10"/>
    <timestep time="11.20"/>
    <timestep time="11.30"/>
    <timestep time="11.40"/>
    <timestep time="11.50"/>
    <timestep time="11.60"/>
    <timestep time="11.70"/>
    <timestep time="11.80"/>
    <timestep time="11.90"/>
    <timestep time="12.00"/>
    <timestep time="12.10"/>
    <timestep time="12.20"/>
    <timestep time="12.30"/>
    <timestep time="12.40"/>
    <timestep time="12.50"/>
    <timestep time="12.60"/>
    <timestep time="12.70"/>
    <timestep time="12.80"/>
    <timestep time="12.90"/>
    <timestep time="13.00"/>
    <timestep time="13.10"/>
    <timestep time="13.20"/>
    <timestep time="13.30"/>
    <timestep time="13.40"/>
    <timestep time="13.50"/>
    <timestep time="13.60"/>
    <timestep time="13.70"/>
    <timestep time="13.80"/>
    <timestep time="13.90"/>
    <timestep time="14.00"/>
    <timestep time="14.10"/>
    <timestep time="14.20"/>
    <timestep time="14.30"/>
    <timestep time="14.40"/>
    <timestep time="14.50"/>
    <timestep time="14.60"/>
    <timestep time="14.70"/>
    <timestep time="14.80"/>
    <timestep time="14.90"/>
    <timestep time="15.00"/>
    <timestep time="15.10"/>
    <timestep time="15.20"/>
    <timestep time="15.30"/>
    <timestep time="15.40"/>
    <timestep time="15.50"/>
    <timestep time="15.60"/>
    <timestep time="15.70"/>
    <timestep time="15.80"/>
    <timestep time="15.90"/>
    <timestep time="16.00"/>
    <timestep time="16.10"/>
    <timestep time="16.20"/>
    <timestep time="16.30"/>
    <timestep time="16.40"/>
    <timestep time="16.50"/>
    <timestep time="16.60"/>
    <timestep time="16.70"/>
    <timestep time="16.80"/>
    <timestep time="16.90"/>
    <timestep time="17.00"/>
    <timestep time="17.10"/>
    <timestep time="17.20"/>
    <timestep time="17.30"/>
    <timestep time="17.40"/>
    <timestep time="17.50"/>
    <timestep time="17.60"/>
    <timestep time="17.70"/>
    <timestep time="17.80"/>
    <timestep time="17.90"/>
    <timestep time="18.00"/>
    <timestep time="18.10"/>
    <timestep time="18.20"/>
    <timestep time="18.30"/>
    <timestep time="18.40"/>
    <timestep time="18.50"/>
    <timestep time="18.60"/>
    <timestep time="18.70"/>
    <timestep time="18.80"/>
    <timestep time="18.90"/>
    <timestep time="19.00"/>
    <timestep time="19.10"/>
    <timestep time="19.20"/>
    <timestep time="19.30"/>
    <timestep time="19.40"/>
    <timestep time="19.50"/>
    <timestep time="19.60"/>
    <timestep time="19.70"/>
    <timestep time="19.80"/>
    <timestep time="19.90"/>
    <timestep time="20.00"/>
    <timestep time="20.10"/>
    <timestep time="20.20"/>
    <timestep time="20.30"/>
    <timestep time="20.40"/>
    <timestep time="20.50"/>
    <timestep time="20.60"/>
    <timestep time="20.70"/>
    <timestep time="20.80"/>
    <timestep time="20.90"/>
    <timestep time="21.00"/>
    <timestep time="21.10"/>
    <timestep time="21.20"/>
    <timestep time="21.30"/>
    <timestep time="21.40"/>
    <timestep time="21.50"/>
    <timestep time="21.60"/>
    <timestep time="21.70"/>
    <timestep time="21.80"/>
    <timestep time="21.90"/>
    <timestep time="22.00"/>
    <timestep time="22.10"/>
    <timestep time="22.20"/>
    <timestep time="22.30"/>
    <timestep time="22.40"/>
</emission-export>
